# vtk DataFile Version 2.0
Structured points constant data
ASCII
DATASET RECTILINEAR_GRID
DIMENSIONS 4 4 1
X_COORDINATES 4 float
0.000000
0.333333
0.666667
1.000000
Y_COORDINATES 4 float
0.000000
0.333333
0.666667
1.000000
Z_COORDINATES 1 float
0.000000

CELL_DATA   9
SCALARS vari2 float
LOOKUP_TABLE default
1.0
1.0
1.0
2.0
2.0
2.0
3.0
3.0
3.0

SCALARS vari1 float
LOOKUP_TABLE default
1.000000
1.000000
1.000000
1.000000
1.000000
1.000000
1.000000
1.000000
1.000000

SCALARS vari3 float
LOOKUP_TABLE default
1.000000
1.000000
1.000000
1.000000
1.000000
1.000000
1.000000
1.000000
1.000000
